# vtk DataFile Version 2.0
Really cool data
ASCII
DATASET STRUCTURED_GRID
DIMENSIONS 3 4 6
POINTS 72 long
0 0 0
2 0 0
4 0 0
0 2 0
2 2 0
4 2 0
0 4 0
2 4 0
4 4 0
0 6 0
2 6 0
4 6 0
0 0 2
2 0 2
4 0 2
0 2 2
2 2 2
4 2 2
0 4 2
2 4 2
4 4 2
0 6 2
2 6 2
4 6 2
0 0 4
2 0 4
4 0 4
0 2 4
2 2 4
4 2 4
0 4 4
2 4 4
4 4 4
0 6 4
2 6 4
4 6 4
0 0 6
2 0 6
4 0 6
0 2 6
2 2 6
4 2 6
0 4 6
2 4 6
4 4 6
0 6 6
2 6 6
4 6 6
0 0 8
2 0 8
4 0 8
0 2 8
2 2 8
4 2 8
0 4 8
2 4 8
4 4 8
0 6 8
2 6 8
4 6 8
0 0 10
2 0 10
4 0 10
0 2 10
2 2 10
4 2 10
0 4 10
2 4 10
4 4 10
0 6 10
2 6 10
4 6 10
POINT_DATA 72
SCALARS x*y*z long 1
LOOKUP_TABLE default
0 0 0 0 0 0 0 0 0 0 0 0 0 0 0 0 8 16 0 16 32 0 24 48 0 0 0 0 16 32 0 32 64 0 48 96 0 0 0 0 24 48 0 48 96 0 72 144 0 0 0 0 32 64 0 64 128 0 96 192 0 0 0 0 40 80 0 80 160 0 120 240