# vtk DataFile Version 2.0
Really cool data
ASCII
DATASET RECTILINEAR_GRID
DIMENSIONS 6 8 12
X_COORDINATES 6 int
0 1 2 3 4 5
Y_COORDINATES 8 int
0 1 2 3 4 5 6 7
Z_COORDINATES 12 int
0 1 2 3 4 5 6 7 8 9 10 11
POINT_DATA 576
SCALARS x*y*z int 1
LOOKUP_TABLE default
0 0 0 0 0 0 0 0 0 0 0 0 0 0 0 0 0 0 0 0 0 0 0 0 0 0 0 0 0 0 0 0 0 0 0 0 0 0 0 0 0 0 0 0 0 0 0 0 0 0 0 0 0 0 0 1 2 3 4 5 0 2 4 6 8 10 0 3 6 9 12 15 0 4 8 12 16 20 0 5 10 15 20 25 0 6 12 18 24 30 0 7 14 21 28 35 0 0 0 0 0 0 0 2 4 6 8 10 0 4 8 12 16 20 0 6 12 18 24 30 0 8 16 24 32 40 0 10 20 30 40 50 0 12 24 36 48 60 0 14 28 42 56 70 0 0 0 0 0 0 0 3 6 9 12 15 0 6 12 18 24 30 0 9 18 27 36 45 0 12 24 36 48 60 0 15 30 45 60 75 0 18 36 54 72 90 0 21 42 63 84 105 0 0 0 0 0 0 0 4 8 12 16 20 0 8 16 24 32 40 0 12 24 36 48 60 0 16 32 48 64 80 0 20 40 60 80 100 0 24 48 72 96 120 0 28 56 84 112 140 0 0 0 0 0 0 0 5 10 15 20 25 0 10 20 30 40 50 0 15 30 45 60 75 0 20 40 60 80 100 0 25 50 75 100 125 0 30 60 90 120 150 0 35 70 105 140 175 0 0 0 0 0 0 0 6 12 18 24 30 0 12 24 36 48 60 0 18 36 54 72 90 0 24 48 72 96 120 0 30 60 90 120 150 0 36 72 108 144 180 0 42 84 126 168 210 0 0 0 0 0 0 0 7 14 21 28 35 0 14 28 42 56 70 0 21 42 63 84 105 0 28 56 84 112 140 0 35 70 105 140 175 0 42 84 126 168 210 0 49 98 147 196 245 0 0 0 0 0 0 0 8 16 24 32 40 0 16 32 48 64 80 0 24 48 72 96 120 0 32 64 96 128 160 0 40 80 120 160 200 0 48 96 144 192 240 0 56 112 168 224 280 0 0 0 0 0 0 0 9 18 27 36 45 0 18 36 54 72 90 0 27 54 81 108 135 0 36 72 108 144 180 0 45 90 135 180 225 0 54 108 162 216 270 0 63 126 189 252 315 0 0 0 0 0 0 0 10 20 30 40 50 0 20 40 60 80 100 0 30 60 90 120 150 0 40 80 120 160 200 0 50 100 150 200 250 0 60 120 180 240 300 0 70 140 210 280 350 0 0 0 0 0 0 0 11 22 33 44 55 0 22 44 66 88 110 0 33 66 99 132 165 0 44 88 132 176 220 0 55 110 165 220 275 0 66 132 198 264 330 0 77 154 231 308 385